V -t * -v 1.0a5 -a 0
W -t * -x 1500 -y 300
A -t * -n 1 -p 0 -o 0x7fffffff -c 30 -a 1
A -t * -h 1 -m 1073741823 -s 0
n -t 0.000000 -s 0 -x 257.404373 -y 81.463330 -U 0.057631 -V 0.005080 -T 17649.545444
n -t 0.000000 -s 1 -x 1306.063920 -y 243.263941 -U -0.908847 -V -0.224884 -T 690.674261
n -t 0.000000 -s 2 -x 885.199950 -y 212.315946 -U -0.484432 -V 0.060013 -T 1353.580412
n -t 0.000000 -s 3 -x 1194.751588 -y 240.311057 -U -0.534558 -V 0.023321 -T 1292.572180
n -t 0.000000 -s 4 -x 1116.616384 -y 12.673738 -U -0.385594 -V 0.020909 -T 2014.882425
n -t 0.000000 -s 5 -x 662.845823 -y 98.149991 -U -0.245118 -V 0.223129 -T 816.126164
n -t 0.000000 -s 6 -x 1030.182287 -y 229.079394 -U -0.347720 -V 0.019555 -T 2620.811401
n -t 0.000000 -s 7 -x 865.018431 -y 147.319679 -U -0.401438 -V 0.119440 -T 1148.720182
n -t 0.000000 -s 8 -x 849.218991 -y 141.485141 -U 0.667610 -V 0.092600 -T 729.536675
n -t 0.000000 -s 9 -x 1281.873474 -y 217.158178 -U -0.214821 -V -0.063769 -T 1033.040611
n -t 0.000000 -s 10 -x 46.975508 -y 111.466976 -U 0.384886 -V -0.036031 -T 2997.108168
n -t 0.000000 -s 11 -x 1075.997461 -y 22.422153 -U -0.146430 -V 0.051043 -T 2358.965372
n -t 0.000000 -s 12 -x 176.958027 -y 145.400105 -U 0.404350 -V -0.014413 -T 561.766263
n -t 0.000000 -s 13 -x 707.223946 -y 216.048768 -U -0.821651 -V -0.405298 -T 241.620673
n -t 0.000000 -s 14 -x 469.285461 -y 257.126738 -U 0.505370 -V -0.115265 -T 766.262669
n -t 0.000000 -s 15 -x 1279.259058 -y 215.089572 -U -0.700453 -V -0.132774 -T 1109.685365
n -t 0.000000 -s 16 -x 886.724693 -y 205.783924 -U -0.386229 -V -0.073800 -T 1029.568265
n -t 0.000000 -s 17 -x 712.912002 -y 236.493726 -U 0.191317 -V -0.155312 -T 106.223903
n -t 0.000000 -s 18 -x 53.841243 -y 240.714417 -U 0.988052 -V -0.145070 -T 1330.802394
n -t 0.000000 -s 19 -x 1328.624709 -y 189.349698 -U 0.130830 -V -0.235495 -T 700.189830
n -t 0.000000 -s 20 -x 748.441493 -y 147.219976 -U 0.577508 -V 0.023634 -T 758.627183
n -t 0.000000 -s 21 -x 1020.085658 -y 143.887914 -U -0.424061 -V -0.075739 -T 586.767507
n -t 0.000000 -s 22 -x 1159.677048 -y 32.537535 -U -0.061138 -V 0.002628 -T 17737.228433
n -t 0.000000 -s 23 -x 434.059513 -y 68.377099 -U 0.000681 -V 0.005333 -T 37387.793315
n -t 0.000000 -s 24 -x 997.647072 -y 13.378818 -U -0.742910 -V 0.309436 -T 869.830515
n -t 0.000000 -s 25 -x 431.257908 -y 141.609533 -U -0.662511 -V -0.159841 -T 510.191215
n -t 0.000000 -s 26 -x 1189.364372 -y 86.134094 -U 0.375226 -V 0.031806 -T 691.856879
n -t 0.000000 -s 27 -x 1068.450613 -y 238.964614 -U -0.389122 -V -0.026497 -T 1988.169441
n -t 0.000000 -s 28 -x 1102.058643 -y 250.142548 -U -0.328868 -V 0.071392 -T 643.713115
n -t 0.000000 -s 29 -x 879.059726 -y 177.890449 -U 0.453298 -V -0.055721 -T 1349.821542
n -t 0.000000 -s 30 -x 200.101512 -y 260.723316 -U 0.887362 -V 0.134885 -T 288.792543
n -t 0.000000 -s 31 -x 90.701949 -y 43.331930 -U 0.571493 -V 0.093354 -T 119.869611
n -t 0.000000 -s 32 -x 537.713327 -y 138.546865 -U 0.448585 -V 0.358592 -T 302.453479
n -t 0.000000 -s 33 -x 1451.793795 -y 229.715047 -U -0.433490 -V -0.011453 -T 2553.924433
n -t 0.000000 -s 34 -x 761.048657 -y 32.561632 -U 0.614823 -V 0.353540 -T 552.099024
n -t 0.000000 -s 35 -x 502.160927 -y 72.364814 -U -0.010410 -V 0.682979 -T 131.999674
n -t 0.000000 -s 36 -x 50.164415 -y 231.483520 -U 0.497585 -V 0.017929 -T 711.380339
n -t 0.000000 -s 37 -x 251.104037 -y 81.245135 -U 0.975311 -V 0.042827 -T 813.232048
n -t 0.000000 -s 38 -x 268.937805 -y 208.878945 -U 0.579800 -V 0.016692 -T 1649.433637
n -t 0.000000 -s 39 -x 179.140763 -y 210.613689 -U 0.031920 -V -0.001423 -T 34280.539160
n -t 0.000000 -s 40 -x 1143.305522 -y 109.322367 -U 0.007947 -V 0.011558 -T 9411.969920
n -t 0.000000 -s 41 -x 421.990765 -y 90.520236 -U 0.599941 -V 0.161058 -T 1260.292267
n -t 0.000000 -s 42 -x 784.361454 -y 94.858162 -U -0.345780 -V -0.143417 -T 279.581689
n -t 0.000000 -s 43 -x 1024.801026 -y 244.571952 -U -0.704302 -V -0.134922 -T 1100.440885
n -t 0.000000 -s 44 -x 1161.031840 -y 299.216703 -U 0.152154 -V -0.256304 -T 850.874475
n -t 0.000000 -s 45 -x 1339.882139 -y 1.824856 -U -0.070390 -V 0.000540 -T 4146.778657
n -t 0.000000 -s 46 -x 1147.171864 -y 157.791077 -U -0.043964 -V 0.003770 -T 20652.708062
n -t 0.000000 -s 47 -x 166.320114 -y 21.812995 -U 0.418070 -V 0.015978 -T 2872.152216
n -t 0.000000 -s 48 -x 1457.090602 -y 104.858144 -U -0.982300 -V -0.111454 -T 487.302846
n -t 0.000000 -s 49 -x 685.197106 -y 148.975878 -U -0.204863 -V -0.021557 -T 3235.584408
+ -t 0.100000000 -s 0 -d -1 -p tcp -e 40 -c 2 -a 0 -i 0 -k AGT 
- -t 0.100000000 -s 0 -d -1 -p tcp -e 40 -c 2 -a 0 -i 0 -k AGT
h -t 0.100000000 -s 0 -d -1 -p tcp -e 40 -c 2 -a 0 -i 0 -k AGT
+ -t 0.100000000 -s 1 -d -1 -p tcp -e 40 -c 2 -a 0 -i 1 -k AGT 
- -t 0.100000000 -s 1 -d -1 -p tcp -e 40 -c 2 -a 0 -i 1 -k AGT
h -t 0.100000000 -s 1 -d -1 -p tcp -e 40 -c 2 -a 0 -i 1 -k AGT
+ -t 0.100000000 -s 2 -d -1 -p tcp -e 40 -c 2 -a 0 -i 2 -k AGT 
- -t 0.100000000 -s 2 -d -1 -p tcp -e 40 -c 2 -a 0 -i 2 -k AGT
h -t 0.100000000 -s 2 -d -1 -p tcp -e 40 -c 2 -a 0 -i 2 -k AGT
+ -t 0.100000000 -s 3 -d -1 -p tcp -e 40 -c 2 -a 0 -i 3 -k AGT 
- -t 0.100000000 -s 3 -d -1 -p tcp -e 40 -c 2 -a 0 -i 3 -k AGT
h -t 0.100000000 -s 3 -d -1 -p tcp -e 40 -c 2 -a 0 -i 3 -k AGT
+ -t 0.100000000 -s 4 -d -1 -p tcp -e 40 -c 2 -a 0 -i 4 -k AGT 
- -t 0.100000000 -s 4 -d -1 -p tcp -e 40 -c 2 -a 0 -i 4 -k AGT
h -t 0.100000000 -s 4 -d -1 -p tcp -e 40 -c 2 -a 0 -i 4 -k AGT
+ -t 0.100000000 -s 5 -d -1 -p tcp -e 40 -c 2 -a 0 -i 5 -k AGT 
- -t 0.100000000 -s 5 -d -1 -p tcp -e 40 -c 2 -a 0 -i 5 -k AGT
h -t 0.100000000 -s 5 -d -1 -p tcp -e 40 -c 2 -a 0 -i 5 -k AGT
+ -t 0.100000000 -s 6 -d -1 -p tcp -e 40 -c 2 -a 0 -i 6 -k AGT 
- -t 0.100000000 -s 6 -d -1 -p tcp -e 40 -c 2 -a 0 -i 6 -k AGT
h -t 0.100000000 -s 6 -d -1 -p tcp -e 40 -c 2 -a 0 -i 6 -k AGT
+ -t 0.100000000 -s 7 -d -1 -p tcp -e 40 -c 2 -a 0 -i 7 -k AGT 
- -t 0.100000000 -s 7 -d -1 -p tcp -e 40 -c 2 -a 0 -i 7 -k AGT
h -t 0.100000000 -s 7 -d -1 -p tcp -e 40 -c 2 -a 0 -i 7 -k AGT
+ -t 0.100000000 -s 8 -d -1 -p tcp -e 40 -c 2 -a 0 -i 8 -k AGT 
- -t 0.100000000 -s 8 -d -1 -p tcp -e 40 -c 2 -a 0 -i 8 -k AGT
h -t 0.100000000 -s 8 -d -1 -p tcp -e 40 -c 2 -a 0 -i 8 -k AGT
+ -t 0.100000000 -s 9 -d -1 -p tcp -e 40 -c 2 -a 0 -i 9 -k AGT 
- -t 0.100000000 -s 9 -d -1 -p tcp -e 40 -c 2 -a 0 -i 9 -k AGT
h -t 0.100000000 -s 9 -d -1 -p tcp -e 40 -c 2 -a 0 -i 9 -k AGT
+ -t 0.100000000 -s 0 -d -1 -p AODV -e 48 -c 2 -a 0 -i 0 -k RTR 
- -t 0.100000000 -s 0 -d -1 -p AODV -e 48 -c 2 -a 0 -i 0 -k RTR
h -t 0.100000000 -s 0 -d -1 -p AODV -e 48 -c 2 -a 0 -i 0 -k RTR
+ -t 0.100000000 -s 1 -d -1 -p AODV -e 48 -c 2 -a 0 -i 0 -k RTR 
- -t 0.100000000 -s 1 -d -1 -p AODV -e 48 -c 2 -a 0 -i 0 -k RTR
h -t 0.100000000 -s 1 -d -1 -p AODV -e 48 -c 2 -a 0 -i 0 -k RTR
+ -t 0.100000000 -s 2 -d -1 -p AODV -e 48 -c 2 -a 0 -i 0 -k RTR 
- -t 0.100000000 -s 2 -d -1 -p AODV -e 48 -c 2 -a 0 -i 0 -k RTR
h -t 0.100000000 -s 2 -d -1 -p AODV -e 48 -c 2 -a 0 -i 0 -k RTR
+ -t 0.100000000 -s 3 -d -1 -p AODV -e 48 -c 2 -a 0 -i 0 -k RTR 
- -t 0.100000000 -s 3 -d -1 -p AODV -e 48 -c 2 -a 0 -i 0 -k RTR
h -t 0.100000000 -s 3 -d -1 -p AODV -e 48 -c 2 -a 0 -i 0 -k RTR
+ -t 0.100000000 -s 4 -d -1 -p AODV -e 48 -c 2 -a 0 -i 0 -k RTR 
- -t 0.100000000 -s 4 -d -1 -p AODV -e 48 -c 2 -a 0 -i 0 -k RTR
h -t 0.100000000 -s 4 -d -1 -p AODV -e 48 -c 2 -a 0 -i 0 -k RTR
+ -t 0.100000000 -s 5 -d -1 -p AODV -e 48 -c 2 -a 0 -i 0 -k RTR 
- -t 0.100000000 -s 5 -d -1 -p AODV -e 48 -c 2 -a 0 -i 0 -k RTR
h -t 0.100000000 -s 5 -d -1 -p AODV -e 48 -c 2 -a 0 -i 0 -k RTR
+ -t 0.100000000 -s 6 -d -1 -p AODV -e 48 -c 2 -a 0 -i 0 -k RTR 
- -t 0.100000000 -s 6 -d -1 -p AODV -e 48 -c 2 -a 0 -i 0 -k RTR
h -t 0.100000000 -s 6 -d -1 -p AODV -e 48 -c 2 -a 0 -i 0 -k RTR
+ -t 0.100000000 -s 7 -d -1 -p AODV -e 48 -c 2 -a 0 -i 0 -k RTR 
- -t 0.100000000 -s 7 -d -1 -p AODV -e 48 -c 2 -a 0 -i 0 -k RTR
h -t 0.100000000 -s 7 -d -1 -p AODV -e 48 -c 2 -a 0 -i 0 -k RTR
+ -t 0.100000000 -s 8 -d -1 -p AODV -e 48 -c 2 -a 0 -i 0 -k RTR 
- -t 0.100000000 -s 8 -d -1 -p AODV -e 48 -c 2 -a 0 -i 0 -k RTR
h -t 0.100000000 -s 8 -d -1 -p AODV -e 48 -c 2 -a 0 -i 0 -k RTR
+ -t 0.100000000 -s 9 -d -1 -p AODV -e 48 -c 2 -a 0 -i 0 -k RTR 
- -t 0.100000000 -s 9 -d -1 -p AODV -e 48 -c 2 -a 0 -i 0 -k RTR
h -t 0.100000000 -s 9 -d -1 -p AODV -e 48 -c 2 -a 0 -i 0 -k RTR
+ -t 0.100525000 -s 9 -d -1 -p AODV -e 48 -c 2 -a 0 -i 0 -k MAC 
- -t 0.100525000 -s 9 -d -1 -p AODV -e 48 -c 2 -a 0 -i 0 -k MAC
h -t 0.100525000 -s 9 -d -1 -p AODV -e 48 -c 2 -a 0 -i 0 -k MAC
+ -t 0.100575000 -s 6 -d -1 -p AODV -e 48 -c 2 -a 0 -i 0 -k MAC 
- -t 0.100575000 -s 6 -d -1 -p AODV -e 48 -c 2 -a 0 -i 0 -k MAC
h -t 0.100575000 -s 6 -d -1 -p AODV -e 48 -c 2 -a 0 -i 0 -k MAC
+ -t 0.100625000 -s 3 -d -1 -p AODV -e 48 -c 2 -a 0 -i 0 -k MAC 
- -t 0.100625000 -s 3 -d -1 -p AODV -e 48 -c 2 -a 0 -i 0 -k MAC
h -t 0.100625000 -s 3 -d -1 -p AODV -e 48 -c 2 -a 0 -i 0 -k MAC
r -t 0.100717011 -s 15 -d -1 -p AODV -e 48 -c 2 -a 0 -i 0 -k MAC
r -t 0.100717118 -s 1 -d -1 -p AODV -e 48 -c 2 -a 0 -i 0 -k MAC
r -t 0.100717181 -s 19 -d -1 -p AODV -e 48 -c 2 -a 0 -i 0 -k MAC
r -t 0.100742011 -s 15 -d -1 -p AODV -e 48 -c 2 -a 0 -i 0 -k RTR
r -t 0.100742118 -s 1 -d -1 -p AODV -e 48 -c 2 -a 0 -i 0 -k RTR
r -t 0.100742181 -s 19 -d -1 -p AODV -e 48 -c 2 -a 0 -i 0 -k RTR
d -t 0.100767055 -s 43 -d -1 -p AODV -e 48 -c 2 -a 0 -i 0 -k MAC
d -t 0.100767132 -s 27 -d -1 -p AODV -e 48 -c 2 -a 0 -i 0 -k MAC
d -t 0.100767286 -s 21 -d -1 -p AODV -e 48 -c 2 -a 0 -i 0 -k MAC
d -t 0.100767484 -s 16 -d -1 -p AODV -e 48 -c 2 -a 0 -i 0 -k MAC
d -t 0.100767487 -s 2 -d -1 -p AODV -e 48 -c 2 -a 0 -i 0 -k MAC
d -t 0.100767532 -s 29 -d -1 -p AODV -e 48 -c 2 -a 0 -i 0 -k MAC
d -t 0.100767614 -s 7 -d -1 -p AODV -e 48 -c 2 -a 0 -i 0 -k MAC
d -t 0.100767670 -s 8 -d -1 -p AODV -e 48 -c 2 -a 0 -i 0 -k MAC
d -t 0.100768300 -s 5 -d -1 -p AODV -e 48 -c 2 -a 0 -i 0 -k MAC
d -t 0.100768669 -s 32 -d -1 -p AODV -e 48 -c 2 -a 0 -i 0 -k MAC
d -t 0.100817226 -s 44 -d -1 -p AODV -e 48 -c 2 -a 0 -i 0 -k MAC
d -t 0.100817301 -s 9 -d -1 -p AODV -e 48 -c 2 -a 0 -i 0 -k MAC
d -t 0.100817311 -s 28 -d -1 -p AODV -e 48 -c 2 -a 0 -i 0 -k MAC
d -t 0.100817317 -s 46 -d -1 -p AODV -e 48 -c 2 -a 0 -i 0 -k MAC
d -t 0.100817469 -s 40 -d -1 -p AODV -e 48 -c 2 -a 0 -i 0 -k MAC
d -t 0.100817514 -s 26 -d -1 -p AODV -e 48 -c 2 -a 0 -i 0 -k MAC
d -t 0.100817550 -s 6 -d -1 -p AODV -e 48 -c 2 -a 0 -i 0 -k MAC
d -t 0.100817702 -s 22 -d -1 -p AODV -e 48 -c 2 -a 0 -i 0 -k MAC
d -t 0.100817802 -s 4 -d -1 -p AODV -e 48 -c 2 -a 0 -i 0 -k MAC
d -t 0.100817827 -s 11 -d -1 -p AODV -e 48 -c 2 -a 0 -i 0 -k MAC
d -t 0.100817858 -s 33 -d -1 -p AODV -e 48 -c 2 -a 0 -i 0 -k MAC
d -t 0.100817931 -s 45 -d -1 -p AODV -e 48 -c 2 -a 0 -i 0 -k MAC
d -t 0.100817984 -s 48 -d -1 -p AODV -e 48 -c 2 -a 0 -i 0 -k MAC
d -t 0.100818002 -s 24 -d -1 -p AODV -e 48 -c 2 -a 0 -i 0 -k MAC
d -t 0.100818451 -s 42 -d -1 -p AODV -e 48 -c 2 -a 0 -i 0 -k MAC
d -t 0.100818519 -s 20 -d -1 -p AODV -e 48 -c 2 -a 0 -i 0 -k MAC
d -t 0.100818603 -s 34 -d -1 -p AODV -e 48 -c 2 -a 0 -i 0 -k MAC
d -t 0.100818606 -s 17 -d -1 -p AODV -e 48 -c 2 -a 0 -i 0 -k MAC
d -t 0.100818627 -s 13 -d -1 -p AODV -e 48 -c 2 -a 0 -i 0 -k MAC
d -t 0.100818725 -s 49 -d -1 -p AODV -e 48 -c 2 -a 0 -i 0 -k MAC
+ -t 0.100825000 -s 2 -d -1 -p AODV -e 48 -c 2 -a 0 -i 0 -k MAC 
- -t 0.100825000 -s 2 -d -1 -p AODV -e 48 -c 2 -a 0 -i 0 -k MAC
h -t 0.100825000 -s 2 -d -1 -p AODV -e 48 -c 2 -a 0 -i 0 -k MAC
r -t 0.101017022 -s 16 -d -1 -p AODV -e 48 -c 2 -a 0 -i 0 -k MAC
r -t 0.101017117 -s 29 -d -1 -p AODV -e 48 -c 2 -a 0 -i 0 -k MAC
r -t 0.101017227 -s 7 -d -1 -p AODV -e 48 -c 2 -a 0 -i 0 -k MAC
r -t 0.101017265 -s 8 -d -1 -p AODV -e 48 -c 2 -a 0 -i 0 -k MAC
r -t 0.101017478 -s 43 -d -1 -p AODV -e 48 -c 2 -a 0 -i 0 -k MAC
r -t 0.101017487 -s 6 -d -1 -p AODV -e 48 -c 2 -a 0 -i 0 -k MAC
r -t 0.101017504 -s 21 -d -1 -p AODV -e 48 -c 2 -a 0 -i 0 -k MAC
r -t 0.101017505 -s 20 -d -1 -p AODV -e 48 -c 2 -a 0 -i 0 -k MAC
r -t 0.101017516 -s 42 -d -1 -p AODV -e 48 -c 2 -a 0 -i 0 -k MAC
r -t 0.101017580 -s 17 -d -1 -p AODV -e 48 -c 2 -a 0 -i 0 -k MAC
r -t 0.101017593 -s 13 -d -1 -p AODV -e 48 -c 2 -a 0 -i 0 -k MAC
r -t 0.101017617 -s 27 -d -1 -p AODV -e 48 -c 2 -a 0 -i 0 -k MAC
r -t 0.101017699 -s 49 -d -1 -p AODV -e 48 -c 2 -a 0 -i 0 -k MAC
r -t 0.101017728 -s 34 -d -1 -p AODV -e 48 -c 2 -a 0 -i 0 -k MAC
r -t 0.101017734 -s 28 -d -1 -p AODV -e 48 -c 2 -a 0 -i 0 -k MAC
r -t 0.101017762 -s 24 -d -1 -p AODV -e 48 -c 2 -a 0 -i 0 -k MAC
r -t 0.101017833 -s 5 -d -1 -p AODV -e 48 -c 2 -a 0 -i 0 -k MAC
d -t 0.101017892 -s 46 -d -1 -p AODV -e 48 -c 2 -a 0 -i 0 -k MAC
d -t 0.101017897 -s 11 -d -1 -p AODV -e 48 -c 2 -a 0 -i 0 -k MAC
d -t 0.101017926 -s 40 -d -1 -p AODV -e 48 -c 2 -a 0 -i 0 -k MAC
d -t 0.101017964 -s 44 -d -1 -p AODV -e 48 -c 2 -a 0 -i 0 -k MAC
d -t 0.101018019 -s 4 -d -1 -p AODV -e 48 -c 2 -a 0 -i 0 -k MAC
d -t 0.101018036 -s 3 -d -1 -p AODV -e 48 -c 2 -a 0 -i 0 -k MAC
d -t 0.101018094 -s 22 -d -1 -p AODV -e 48 -c 2 -a 0 -i 0 -k MAC
d -t 0.101018098 -s 26 -d -1 -p AODV -e 48 -c 2 -a 0 -i 0 -k MAC
d -t 0.101018184 -s 32 -d -1 -p AODV -e 48 -c 2 -a 0 -i 0 -k MAC
d -t 0.101018313 -s 15 -d -1 -p AODV -e 48 -c 2 -a 0 -i 0 -k MAC
d -t 0.101018322 -s 9 -d -1 -p AODV -e 48 -c 2 -a 0 -i 0 -k MAC
d -t 0.101018359 -s 35 -d -1 -p AODV -e 48 -c 2 -a 0 -i 0 -k MAC
d -t 0.101018394 -s 14 -d -1 -p AODV -e 48 -c 2 -a 0 -i 0 -k MAC
d -t 0.101018407 -s 1 -d -1 -p AODV -e 48 -c 2 -a 0 -i 0 -k MAC
d -t 0.101018480 -s 19 -d -1 -p AODV -e 48 -c 2 -a 0 -i 0 -k MAC
d -t 0.101018531 -s 25 -d -1 -p AODV -e 48 -c 2 -a 0 -i 0 -k MAC
d -t 0.101018578 -s 23 -d -1 -p AODV -e 48 -c 2 -a 0 -i 0 -k MAC
d -t 0.101018596 -s 41 -d -1 -p AODV -e 48 -c 2 -a 0 -i 0 -k MAC
d -t 0.101018670 -s 45 -d -1 -p AODV -e 48 -c 2 -a 0 -i 0 -k MAC
r -t 0.101042022 -s 16 -d -1 -p AODV -e 48 -c 2 -a 0 -i 0 -k RTR
r -t 0.101042117 -s 29 -d -1 -p AODV -e 48 -c 2 -a 0 -i 0 -k RTR
r -t 0.101042227 -s 7 -d -1 -p AODV -e 48 -c 2 -a 0 -i 0 -k RTR
r -t 0.101042265 -s 8 -d -1 -p AODV -e 48 -c 2 -a 0 -i 0 -k RTR
r -t 0.101042478 -s 43 -d -1 -p AODV -e 48 -c 2 -a 0 -i 0 -k RTR
r -t 0.101042487 -s 6 -d -1 -p AODV -e 48 -c 2 -a 0 -i 0 -k RTR
r -t 0.101042504 -s 21 -d -1 -p AODV -e 48 -c 2 -a 0 -i 0 -k RTR
r -t 0.101042505 -s 20 -d -1 -p AODV -e 48 -c 2 -a 0 -i 0 -k RTR
r -t 0.101042516 -s 42 -d -1 -p AODV -e 48 -c 2 -a 0 -i 0 -k RTR
r -t 0.101042580 -s 17 -d -1 -p AODV -e 48 -c 2 -a 0 -i 0 -k RTR
r -t 0.101042593 -s 13 -d -1 -p AODV -e 48 -c 2 -a 0 -i 0 -k RTR
r -t 0.101042617 -s 27 -d -1 -p AODV -e 48 -c 2 -a 0 -i 0 -k RTR
r -t 0.101042699 -s 49 -d -1 -p AODV -e 48 -c 2 -a 0 -i 0 -k RTR
r -t 0.101042728 -s 34 -d -1 -p AODV -e 48 -c 2 -a 0 -i 0 -k RTR
r -t 0.101042734 -s 28 -d -1 -p AODV -e 48 -c 2 -a 0 -i 0 -k RTR
r -t 0.101042762 -s 24 -d -1 -p AODV -e 48 -c 2 -a 0 -i 0 -k RTR
r -t 0.101042833 -s 5 -d -1 -p AODV -e 48 -c 2 -a 0 -i 0 -k RTR
+ -t 0.101125000 -s 0 -d -1 -p AODV -e 48 -c 2 -a 0 -i 0 -k MAC 
- -t 0.101125000 -s 0 -d -1 -p AODV -e 48 -c 2 -a 0 -i 0 -k MAC
h -t 0.101125000 -s 0 -d -1 -p AODV -e 48 -c 2 -a 0 -i 0 -k MAC
+ -t 0.101225000 -s 8 -d -1 -p AODV -e 48 -c 2 -a 0 -i 0 -k MAC 
- -t 0.101225000 -s 8 -d -1 -p AODV -e 48 -c 2 -a 0 -i 0 -k MAC
h -t 0.101225000 -s 8 -d -1 -p AODV -e 48 -c 2 -a 0 -i 0 -k MAC
r -t 0.101317021 -s 37 -d -1 -p AODV -e 48 -c 2 -a 0 -i 0 -k MAC
r -t 0.101317342 -s 12 -d -1 -p AODV -e 48 -c 2 -a 0 -i 0 -k MAC
r -t 0.101317363 -s 47 -d -1 -p AODV -e 48 -c 2 -a 0 -i 0 -k MAC
r -t 0.101317426 -s 38 -d -1 -p AODV -e 48 -c 2 -a 0 -i 0 -k MAC
r -t 0.101317503 -s 39 -d -1 -p AODV -e 48 -c 2 -a 0 -i 0 -k MAC
r -t 0.101317550 -s 41 -d -1 -p AODV -e 48 -c 2 -a 0 -i 0 -k MAC
r -t 0.101317570 -s 31 -d -1 -p AODV -e 48 -c 2 -a 0 -i 0 -k MAC
r -t 0.101317590 -s 23 -d -1 -p AODV -e 48 -c 2 -a 0 -i 0 -k MAC
r -t 0.101317613 -s 25 -d -1 -p AODV -e 48 -c 2 -a 0 -i 0 -k MAC
r -t 0.101317627 -s 30 -d -1 -p AODV -e 48 -c 2 -a 0 -i 0 -k MAC
r -t 0.101317708 -s 10 -d -1 -p AODV -e 48 -c 2 -a 0 -i 0 -k MAC
d -t 0.101317853 -s 36 -d -1 -p AODV -e 48 -c 2 -a 0 -i 0 -k MAC
d -t 0.101317861 -s 18 -d -1 -p AODV -e 48 -c 2 -a 0 -i 0 -k MAC
r -t 0.101342021 -s 37 -d -1 -p AODV -e 48 -c 2 -a 0 -i 0 -k RTR
r -t 0.101342342 -s 12 -d -1 -p AODV -e 48 -c 2 -a 0 -i 0 -k RTR
r -t 0.101342363 -s 47 -d -1 -p AODV -e 48 -c 2 -a 0 -i 0 -k RTR
r -t 0.101342426 -s 38 -d -1 -p AODV -e 48 -c 2 -a 0 -i 0 -k RTR
r -t 0.101342503 -s 39 -d -1 -p AODV -e 48 -c 2 -a 0 -i 0 -k RTR
r -t 0.101342550 -s 41 -d -1 -p AODV -e 48 -c 2 -a 0 -i 0 -k RTR
r -t 0.101342570 -s 31 -d -1 -p AODV -e 48 -c 2 -a 0 -i 0 -k RTR
r -t 0.101342590 -s 23 -d -1 -p AODV -e 48 -c 2 -a 0 -i 0 -k RTR
r -t 0.101342613 -s 25 -d -1 -p AODV -e 48 -c 2 -a 0 -i 0 -k RTR
r -t 0.101342627 -s 30 -d -1 -p AODV -e 48 -c 2 -a 0 -i 0 -k RTR
r -t 0.101342708 -s 10 -d -1 -p AODV -e 48 -c 2 -a 0 -i 0 -k RTR
r -t 0.101417056 -s 7 -d -1 -p AODV -e 48 -c 2 -a 0 -i 0 -k MAC
r -t 0.101417157 -s 29 -d -1 -p AODV -e 48 -c 2 -a 0 -i 0 -k MAC
r -t 0.101417248 -s 16 -d -1 -p AODV -e 48 -c 2 -a 0 -i 0 -k MAC
r -t 0.101417265 -s 2 -d -1 -p AODV -e 48 -c 2 -a 0 -i 0 -k MAC
d -t 0.101417267 -s 42 -d -1 -p AODV -e 48 -c 2 -a 0 -i 0 -k MAC
d -t 0.101417336 -s 20 -d -1 -p AODV -e 48 -c 2 -a 0 -i 0 -k MAC
d -t 0.101417467 -s 34 -d -1 -p AODV -e 48 -c 2 -a 0 -i 0 -k MAC
d -t 0.101417535 -s 13 -d -1 -p AODV -e 48 -c 2 -a 0 -i 0 -k MAC
d -t 0.101417548 -s 49 -d -1 -p AODV -e 48 -c 2 -a 0 -i 0 -k MAC
d -t 0.101417554 -s 17 -d -1 -p AODV -e 48 -c 2 -a 0 -i 0 -k MAC
r -t 0.101417569 -s 21 -d -1 -p AODV -e 48 -c 2 -a 0 -i 0 -k MAC
d -t 0.101417638 -s 5 -d -1 -p AODV -e 48 -c 2 -a 0 -i 0 -k MAC
r -t 0.101417653 -s 24 -d -1 -p AODV -e 48 -c 2 -a 0 -i 0 -k MAC
r -t 0.101417670 -s 6 -d -1 -p AODV -e 48 -c 2 -a 0 -i 0 -k MAC
r -t 0.101417678 -s 43 -d -1 -p AODV -e 48 -c 2 -a 0 -i 0 -k MAC
r -t 0.101417799 -s 27 -d -1 -p AODV -e 48 -c 2 -a 0 -i 0 -k MAC
d -t 0.101417854 -s 11 -d -1 -p AODV -e 48 -c 2 -a 0 -i 0 -k MAC
d -t 0.101417917 -s 28 -d -1 -p AODV -e 48 -c 2 -a 0 -i 0 -k MAC
d -t 0.101417986 -s 40 -d -1 -p AODV -e 48 -c 2 -a 0 -i 0 -k MAC
d -t 0.101417989 -s 4 -d -1 -p AODV -e 48 -c 2 -a 0 -i 0 -k MAC
d -t 0.101417994 -s 46 -d -1 -p AODV -e 48 -c 2 -a 0 -i 0 -k MAC
d -t 0.101418038 -s 32 -d -1 -p AODV -e 48 -c 2 -a 0 -i 0 -k MAC
d -t 0.101418097 -s 22 -d -1 -p AODV -e 48 -c 2 -a 0 -i 0 -k MAC
d -t 0.101418149 -s 26 -d -1 -p AODV -e 48 -c 2 -a 0 -i 0 -k MAC
d -t 0.101418165 -s 44 -d -1 -p AODV -e 48 -c 2 -a 0 -i 0 -k MAC
d -t 0.101418180 -s 35 -d -1 -p AODV -e 48 -c 2 -a 0 -i 0 -k MAC
d -t 0.101418198 -s 3 -d -1 -p AODV -e 48 -c 2 -a 0 -i 0 -k MAC
d -t 0.101418324 -s 14 -d -1 -p AODV -e 48 -c 2 -a 0 -i 0 -k MAC
d -t 0.101418454 -s 15 -d -1 -p AODV -e 48 -c 2 -a 0 -i 0 -k MAC
d -t 0.101418464 -s 9 -d -1 -p AODV -e 48 -c 2 -a 0 -i 0 -k MAC
d -t 0.101418560 -s 1 -d -1 -p AODV -e 48 -c 2 -a 0 -i 0 -k MAC
d -t 0.101418606 -s 19 -d -1 -p AODV -e 48 -c 2 -a 0 -i 0 -k MAC
d -t 0.101418700 -s 45 -d -1 -p AODV -e 48 -c 2 -a 0 -i 0 -k MAC
r -t 0.101442056 -s 7 -d -1 -p AODV -e 48 -c 2 -a 0 -i 0 -k RTR
r -t 0.101442157 -s 29 -d -1 -p AODV -e 48 -c 2 -a 0 -i 0 -k RTR
r -t 0.101442248 -s 16 -d -1 -p AODV -e 48 -c 2 -a 0 -i 0 -k RTR
r -t 0.101442265 -s 2 -d -1 -p AODV -e 48 -c 2 -a 0 -i 0 -k RTR
r -t 0.101442569 -s 21 -d -1 -p AODV -e 48 -c 2 -a 0 -i 0 -k RTR
r -t 0.101442653 -s 24 -d -1 -p AODV -e 48 -c 2 -a 0 -i 0 -k RTR
r -t 0.101442670 -s 6 -d -1 -p AODV -e 48 -c 2 -a 0 -i 0 -k RTR
r -t 0.101442678 -s 43 -d -1 -p AODV -e 48 -c 2 -a 0 -i 0 -k RTR
r -t 0.101442799 -s 27 -d -1 -p AODV -e 48 -c 2 -a 0 -i 0 -k RTR
+ -t 0.101450587 -s 39 -d -1 -p AODV -e 48 -c 2 -a 0 -i 0 -k RTR 
- -t 0.101450587 -s 39 -d -1 -p AODV -e 48 -c 2 -a 0 -i 0 -k RTR
h -t 0.101450587 -s 39 -d -1 -p AODV -e 48 -c 2 -a 0 -i 0 -k RTR
+ -t 0.101575000 -s 4 -d -1 -p AODV -e 48 -c 2 -a 0 -i 0 -k MAC 
- -t 0.101575000 -s 4 -d -1 -p AODV -e 48 -c 2 -a 0 -i 0 -k MAC
h -t 0.101575000 -s 4 -d -1 -p AODV -e 48 -c 2 -a 0 -i 0 -k MAC
+ -t 0.101625000 -s 5 -d -1 -p AODV -e 48 -c 2 -a 0 -i 0 -k MAC 
- -t 0.101625000 -s 5 -d -1 -p AODV -e 48 -c 2 -a 0 -i 0 -k MAC
h -t 0.101625000 -s 5 -d -1 -p AODV -e 48 -c 2 -a 0 -i 0 -k MAC
+ -t 0.101625587 -s 39 -d -1 -p AODV -e 48 -c 2 -a 0 -i 0 -k MAC 
- -t 0.101625587 -s 39 -d -1 -p AODV -e 48 -c 2 -a 0 -i 0 -k MAC
h -t 0.101625587 -s 39 -d -1 -p AODV -e 48 -c 2 -a 0 -i 0 -k MAC
+ -t 0.101675000 -s 7 -d -1 -p AODV -e 48 -c 2 -a 0 -i 0 -k MAC 
- -t 0.101675000 -s 7 -d -1 -p AODV -e 48 -c 2 -a 0 -i 0 -k MAC
h -t 0.101675000 -s 7 -d -1 -p AODV -e 48 -c 2 -a 0 -i 0 -k MAC
+ -t 0.101718228 -s 24 -d -1 -p AODV -e 48 -c 2 -a 0 -i 0 -k RTR 
- -t 0.101718228 -s 24 -d -1 -p AODV -e 48 -c 2 -a 0 -i 0 -k RTR
h -t 0.101718228 -s 24 -d -1 -p AODV -e 48 -c 2 -a 0 -i 0 -k RTR
r -t 0.101767139 -s 11 -d -1 -p AODV -e 48 -c 2 -a 0 -i 0 -k MAC
r -t 0.101767158 -s 22 -d -1 -p AODV -e 48 -c 2 -a 0 -i 0 -k MAC
r -t 0.101767334 -s 40 -d -1 -p AODV -e 48 -c 2 -a 0 -i 0 -k MAC
r -t 0.101767345 -s 26 -d -1 -p AODV -e 48 -c 2 -a 0 -i 0 -k MAC
r -t 0.101767494 -s 46 -d -1 -p AODV -e 48 -c 2 -a 0 -i 0 -k MAC
r -t 0.101767745 -s 45 -d -1 -p AODV -e 48 -c 2 -a 0 -i 0 -k MAC
d -t 0.101768176 -s 48 -d -1 -p AODV -e 48 -c 2 -a 0 -i 0 -k MAC
d -t 0.101768331 -s 33 -d -1 -p AODV -e 48 -c 2 -a 0 -i 0 -k MAC
r -t 0.101792139 -s 11 -d -1 -p AODV -e 48 -c 2 -a 0 -i 0 -k RTR
r -t 0.101792158 -s 22 -d -1 -p AODV -e 48 -c 2 -a 0 -i 0 -k RTR
r -t 0.101792334 -s 40 -d -1 -p AODV -e 48 -c 2 -a 0 -i 0 -k RTR
r -t 0.101792345 -s 26 -d -1 -p AODV -e 48 -c 2 -a 0 -i 0 -k RTR
r -t 0.101792494 -s 46 -d -1 -p AODV -e 48 -c 2 -a 0 -i 0 -k RTR
r -t 0.101792745 -s 45 -d -1 -p AODV -e 48 -c 2 -a 0 -i 0 -k RTR
+ -t 0.101792745 -s 45 -d 4 -p AODV -e 44 -c 2 -a 0 -i 0 -k RTR 
- -t 0.101792745 -s 45 -d 4 -p AODV -e 44 -c 2 -a 0 -i 0 -k RTR
h -t 0.101792745 -s 45 -d 4 -p AODV -e 44 -c 2 -a 0 -i 0 -k RTR
d -t 0.101817185 -s 49 -d -1 -p AODV -e 48 -c 2 -a 0 -i 0 -k MAC
r -t 0.101817438 -s 32 -d -1 -p AODV -e 48 -c 2 -a 0 -i 0 -k MAC
r -t 0.101817542 -s 35 -d -1 -p AODV -e 48 -c 2 -a 0 -i 0 -k MAC
r -t 0.101817768 -s 30 -d -1 -p AODV -e 48 -c 2 -a 0 -i 0 -k MAC
r -t 0.101817804 -s 12 -d -1 -p AODV -e 48 -c 2 -a 0 -i 0 -k MAC
r -t 0.101817886 -s 38 -d -1 -p AODV -e 48 -c 2 -a 0 -i 0 -k MAC
r -t 0.101818016 -s 18 -d -1 -p AODV -e 48 -c 2 -a 0 -i 0 -k MAC
r -t 0.101818022 -s 36 -d -1 -p AODV -e 48 -c 2 -a 0 -i 0 -k MAC
r -t 0.101818080 -s 37 -d -1 -p AODV -e 48 -c 2 -a 0 -i 0 -k MAC
r -t 0.101818090 -s 0 -d -1 -p AODV -e 48 -c 2 -a 0 -i 0 -k MAC
r -t 0.101818137 -s 10 -d -1 -p AODV -e 48 -c 2 -a 0 -i 0 -k MAC
r -t 0.101818217 -s 31 -d -1 -p AODV -e 48 -c 2 -a 0 -i 0 -k MAC
r -t 0.101818218 -s 47 -d -1 -p AODV -e 48 -c 2 -a 0 -i 0 -k MAC
d -t 0.101818655 -s 39 -d -1 -p AODV -e 48 -c 2 -a 0 -i 0 -k MAC
r -t 0.101842438 -s 32 -d -1 -p AODV -e 48 -c 2 -a 0 -i 0 -k RTR
r -t 0.101842542 -s 35 -d -1 -p AODV -e 48 -c 2 -a 0 -i 0 -k RTR
r -t 0.101842768 -s 30 -d -1 -p AODV -e 48 -c 2 -a 0 -i 0 -k RTR
r -t 0.101842804 -s 12 -d -1 -p AODV -e 48 -c 2 -a 0 -i 0 -k RTR
r -t 0.101842886 -s 38 -d -1 -p AODV -e 48 -c 2 -a 0 -i 0 -k RTR
r -t 0.101843016 -s 18 -d -1 -p AODV -e 48 -c 2 -a 0 -i 0 -k RTR
r -t 0.101843022 -s 36 -d -1 -p AODV -e 48 -c 2 -a 0 -i 0 -k RTR
r -t 0.101843080 -s 37 -d -1 -p AODV -e 48 -c 2 -a 0 -i 0 -k RTR
r -t 0.101843090 -s 0 -d -1 -p AODV -e 48 -c 2 -a 0 -i 0 -k RTR
r -t 0.101843137 -s 10 -d -1 -p AODV -e 48 -c 2 -a 0 -i 0 -k RTR
r -t 0.101843217 -s 31 -d -1 -p AODV -e 48 -c 2 -a 0 -i 0 -k RTR
r -t 0.101843218 -s 47 -d -1 -p AODV -e 48 -c 2 -a 0 -i 0 -k RTR
d -t 0.101867056 -s 8 -d -1 -p AODV -e 48 -c 2 -a 0 -i 0 -k MAC
d -t 0.101867112 -s 29 -d -1 -p AODV -e 48 -c 2 -a 0 -i 0 -k MAC
d -t 0.101867208 -s 16 -d -1 -p AODV -e 48 -c 2 -a 0 -i 0 -k MAC
d -t 0.101867227 -s 2 -d -1 -p AODV -e 48 -c 2 -a 0 -i 0 -k MAC
d -t 0.101867321 -s 42 -d -1 -p AODV -e 48 -c 2 -a 0 -i 0 -k MAC
d -t 0.101867388 -s 20 -d -1 -p AODV -e 48 -c 2 -a 0 -i 0 -k MAC
d -t 0.101867516 -s 34 -d -1 -p AODV -e 48 -c 2 -a 0 -i 0 -k MAC
d -t 0.101867517 -s 21 -d -1 -p AODV -e 48 -c 2 -a 0 -i 0 -k MAC
d -t 0.101867574 -s 13 -d -1 -p AODV -e 48 -c 2 -a 0 -i 0 -k MAC
d -t 0.101867588 -s 17 -d -1 -p AODV -e 48 -c 2 -a 0 -i 0 -k MAC
d -t 0.101867614 -s 6 -d -1 -p AODV -e 48 -c 2 -a 0 -i 0 -k MAC
d -t 0.101867623 -s 43 -d -1 -p AODV -e 48 -c 2 -a 0 -i 0 -k MAC
d -t 0.101867628 -s 24 -d -1 -p AODV -e 48 -c 2 -a 0 -i 0 -k MAC
d -t 0.101867693 -s 5 -d -1 -p AODV -e 48 -c 2 -a 0 -i 0 -k MAC
d -t 0.101867744 -s 27 -d -1 -p AODV -e 48 -c 2 -a 0 -i 0 -k MAC
d -t 0.101867861 -s 28 -d -1 -p AODV -e 48 -c 2 -a 0 -i 0 -k MAC
d -t 0.101867951 -s 4 -d -1 -p AODV -e 48 -c 2 -a 0 -i 0 -k MAC
d -t 0.101868109 -s 44 -d -1 -p AODV -e 48 -c 2 -a 0 -i 0 -k MAC
d -t 0.101868142 -s 3 -d -1 -p AODV -e 48 -c 2 -a 0 -i 0 -k MAC
d -t 0.101868369 -s 14 -d -1 -p AODV -e 48 -c 2 -a 0 -i 0 -k MAC
d -t 0.101868399 -s 15 -d -1 -p AODV -e 48 -c 2 -a 0 -i 0 -k MAC
d -t 0.101868409 -s 9 -d -1 -p AODV -e 48 -c 2 -a 0 -i 0 -k MAC
d -t 0.101868446 -s 25 -d -1 -p AODV -e 48 -c 2 -a 0 -i 0 -k MAC
d -t 0.101868460 -s 23 -d -1 -p AODV -e 48 -c 2 -a 0 -i 0 -k MAC
d -t 0.101868489 -s 41 -d -1 -p AODV -e 48 -c 2 -a 0 -i 0 -k MAC
d -t 0.101868504 -s 1 -d -1 -p AODV -e 48 -c 2 -a 0 -i 0 -k MAC
d -t 0.101868552 -s 19 -d -1 -p AODV -e 48 -c 2 -a 0 -i 0 -k MAC
+ -t 0.101926453 -s 38 -d -1 -p AODV -e 48 -c 2 -a 0 -i 0 -k RTR 
- -t 0.101926453 -s 38 -d -1 -p AODV -e 48 -c 2 -a 0 -i 0 -k RTR
h -t 0.101926453 -s 38 -d -1 -p AODV -e 48 -c 2 -a 0 -i 0 -k RTR
+ -t 0.101975000 -s 1 -d -1 -p AODV -e 48 -c 2 -a 0 -i 0 -k MAC 
- -t 0.101975000 -s 1 -d -1 -p AODV -e 48 -c 2 -a 0 -i 0 -k MAC
h -t 0.101975000 -s 1 -d -1 -p AODV -e 48 -c 2 -a 0 -i 0 -k MAC
+ -t 0.102134713 -s 34 -d -1 -p AODV -e 48 -c 2 -a 0 -i 0 -k RTR 
- -t 0.102134713 -s 34 -d -1 -p AODV -e 48 -c 2 -a 0 -i 0 -k RTR
h -t 0.102134713 -s 34 -d -1 -p AODV -e 48 -c 2 -a 0 -i 0 -k RTR
r -t 0.102167118 -s 9 -d -1 -p AODV -e 48 -c 2 -a 0 -i 0 -k MAC
r -t 0.102167130 -s 15 -d -1 -p AODV -e 48 -c 2 -a 0 -i 0 -k MAC
r -t 0.102167195 -s 19 -d -1 -p AODV -e 48 -c 2 -a 0 -i 0 -k MAC
r -t 0.102167371 -s 3 -d -1 -p AODV -e 48 -c 2 -a 0 -i 0 -k MAC
r -t 0.102167488 -s 33 -d -1 -p AODV -e 48 -c 2 -a 0 -i 0 -k MAC
r -t 0.102167518 -s 44 -d -1 -p AODV -e 48 -c 2 -a 0 -i 0 -k MAC
r -t 0.102167601 -s 46 -d -1 -p AODV -e 48 -c 2 -a 0 -i 0 -k MAC
r -t 0.102167652 -s 26 -d -1 -p AODV -e 48 -c 2 -a 0 -i 0 -k MAC
r -t 0.102167680 -s 28 -d -1 -p AODV -e 48 -c 2 -a 0 -i 0 -k MAC
r -t 0.102167683 -s 48 -d -1 -p AODV -e 48 -c 2 -a 0 -i 0 -k MAC
r -t 0.102167702 -s 40 -d -1 -p AODV -e 48 -c 2 -a 0 -i 0 -k MAC
r -t 0.102167792 -s 27 -d -1 -p AODV -e 48 -c 2 -a 0 -i 0 -k MAC
r -t 0.102167813 -s 45 -d -1 -p AODV -e 48 -c 2 -a 0 -i 0 -k MAC
d -t 0.102167855 -s 22 -d -1 -p AODV -e 48 -c 2 -a 0 -i 0 -k MAC
d -t 0.102167921 -s 6 -d -1 -p AODV -e 48 -c 2 -a 0 -i 0 -k MAC
d -t 0.102167937 -s 43 -d -1 -p AODV -e 48 -c 2 -a 0 -i 0 -k MAC
d -t 0.102167995 -s 4 -d -1 -p AODV -e 48 -c 2 -a 0 -i 0 -k MAC
d -t 0.102168009 -s 21 -d -1 -p AODV -e 48 -c 2 -a 0 -i 0 -k MAC
d -t 0.102168063 -s 11 -d -1 -p AODV -e 48 -c 2 -a 0 -i 0 -k MAC
d -t 0.102168282 -s 24 -d -1 -p AODV -e 48 -c 2 -a 0 -i 0 -k MAC
d -t 0.102168403 -s 16 -d -1 -p AODV -e 48 -c 2 -a 0 -i 0 -k MAC
d -t 0.102168407 -s 2 -d -1 -p AODV -e 48 -c 2 -a 0 -i 0 -k MAC
d -t 0.102168439 -s 29 -d -1 -p AODV -e 48 -c 2 -a 0 -i 0 -k MAC
d -t 0.102168504 -s 7 -d -1 -p AODV -e 48 -c 2 -a 0 -i 0 -k MAC
d -t 0.102168560 -s 8 -d -1 -p AODV -e 48 -c 2 -a 0 -i 0 -k MAC
d -t 0.102168808 -s 42 -d -1 -p AODV -e 48 -c 2 -a 0 -i 0 -k MAC
r -t 0.102192118 -s 9 -d -1 -p AODV -e 48 -c 2 -a 0 -i 0 -k RTR
r -t 0.102192130 -s 15 -d -1 -p AODV -e 48 -c 2 -a 0 -i 0 -k RTR
r -t 0.102192195 -s 19 -d -1 -p AODV -e 48 -c 2 -a 0 -i 0 -k RTR
r -t 0.102192371 -s 3 -d -1 -p AODV -e 48 -c 2 -a 0 -i 0 -k RTR
r -t 0.102192488 -s 33 -d -1 -p AODV -e 48 -c 2 -a 0 -i 0 -k RTR
r -t 0.102192518 -s 44 -d -1 -p AODV -e 48 -c 2 -a 0 -i 0 -k RTR
r -t 0.102192601 -s 46 -d -1 -p AODV -e 48 -c 2 -a 0 -i 0 -k RTR
r -t 0.102192652 -s 26 -d -1 -p AODV -e 48 -c 2 -a 0 -i 0 -k RTR
r -t 0.102192680 -s 28 -d -1 -p AODV -e 48 -c 2 -a 0 -i 0 -k RTR
r -t 0.102192683 -s 48 -d -1 -p AODV -e 48 -c 2 -a 0 -i 0 -k RTR
+ -t 0.102192683 -s 48 -d 1 -p AODV -e 44 -c 2 -a 0 -i 0 -k RTR 
- -t 0.102192683 -s 48 -d 1 -p AODV -e 44 -c 2 -a 0 -i 0 -k RTR
h -t 0.102192683 -s 48 -d 1 -p AODV -e 44 -c 2 -a 0 -i 0 -k RTR
r -t 0.102192702 -s 40 -d -1 -p AODV -e 48 -c 2 -a 0 -i 0 -k RTR
r -t 0.102192792 -s 27 -d -1 -p AODV -e 48 -c 2 -a 0 -i 0 -k RTR
r -t 0.102192813 -s 45 -d -1 -p AODV -e 48 -c 2 -a 0 -i 0 -k RTR
+ -t 0.102343772 -s 32 -d -1 -p AODV -e 48 -c 2 -a 0 -i 0 -k RTR 
- -t 0.102343772 -s 32 -d -1 -p AODV -e 48 -c 2 -a 0 -i 0 -k RTR
h -t 0.102343772 -s 32 -d -1 -p AODV -e 48 -c 2 -a 0 -i 0 -k RTR
+ -t 0.102462676 -s 47 -d -1 -p AODV -e 48 -c 2 -a 0 -i 0 -k RTR 
- -t 0.102462676 -s 47 -d -1 -p AODV -e 48 -c 2 -a 0 -i 0 -k RTR
h -t 0.102462676 -s 47 -d -1 -p AODV -e 48 -c 2 -a 0 -i 0 -k RTR
+ -t 0.102501453 -s 38 -d -1 -p AODV -e 48 -c 2 -a 0 -i 0 -k MAC 
- -t 0.102501453 -s 38 -d -1 -p AODV -e 48 -c 2 -a 0 -i 0 -k MAC
h -t 0.102501453 -s 38 -d -1 -p AODV -e 48 -c 2 -a 0 -i 0 -k MAC
+ -t 0.102573625 -s 23 -d -1 -p AODV -e 48 -c 2 -a 0 -i 0 -k RTR 
- -t 0.102573625 -s 23 -d -1 -p AODV -e 48 -c 2 -a 0 -i 0 -k RTR
h -t 0.102573625 -s 23 -d -1 -p AODV -e 48 -c 2 -a 0 -i 0 -k RTR
+ -t 0.102659713 -s 34 -d -1 -p AODV -e 48 -c 2 -a 0 -i 0 -k MAC 
- -t 0.102659713 -s 34 -d -1 -p AODV -e 48 -c 2 -a 0 -i 0 -k MAC
h -t 0.102659713 -s 34 -d -1 -p AODV -e 48 -c 2 -a 0 -i 0 -k MAC
r -t 0.102693740 -s 30 -d -1 -p AODV -e 48 -c 2 -a 0 -i 0 -k MAC
r -t 0.102693752 -s 39 -d -1 -p AODV -e 48 -c 2 -a 0 -i 0 -k MAC
r -t 0.102693825 -s 12 -d -1 -p AODV -e 48 -c 2 -a 0 -i 0 -k MAC
r -t 0.102693879 -s 0 -d -1 -p AODV -e 48 -c 2 -a 0 -i 0 -k MAC
r -t 0.102693882 -s 37 -d -1 -p AODV -e 48 -c 2 -a 0 -i 0 -k MAC
r -t 0.102694038 -s 25 -d -1 -p AODV -e 48 -c 2 -a 0 -i 0 -k MAC
r -t 0.102694140 -s 14 -d -1 -p AODV -e 48 -c 2 -a 0 -i 0 -k MAC